 C4H4 optimization; HF/6-311G(2d,p);
GAUSSIAN             14 MOL ORBITALS    184 PRIMITIVES        8 NUCLEI
  C    1    (CENTRE  1)   0.97683431 -0.97683431 -0.97683431  CHARGE =  6.0
  C    2    (CENTRE  2)  -0.97683431  0.97683431 -0.97683431  CHARGE =  6.0
  C    3    (CENTRE  3)  -0.97683431 -0.97683431  0.97683431  CHARGE =  6.0
  C    4    (CENTRE  4)   0.97683431  0.97683431  0.97683431  CHARGE =  6.0
  H    5    (CENTRE  5)   2.13431961 -2.13431961 -2.13431961  CHARGE =  1.0
  H    6    (CENTRE  6)  -2.13431961  2.13431961 -2.13431961  CHARGE =  1.0
  H    7    (CENTRE  7)  -2.13431961 -2.13431961  2.13431961  CHARGE =  1.0
  H    8    (CENTRE  8)   2.13431961  2.13431961  2.13431961  CHARGE =  1.0
CENTRE ASSIGNMENTS    1  1  1  1  1  1  1  1  1  1  1  1  1  1  1  1  1  1  1  1
CENTRE ASSIGNMENTS    1  1  1  1  1  1  1  1  1  1  1  1  1  1  1  1  1  1  2  2
CENTRE ASSIGNMENTS    2  2  2  2  2  2  2  2  2  2  2  2  2  2  2  2  2  2  2  2
CENTRE ASSIGNMENTS    2  2  2  2  2  2  2  2  2  2  2  2  2  2  2  2  3  3  3  3
CENTRE ASSIGNMENTS    3  3  3  3  3  3  3  3  3  3  3  3  3  3  3  3  3  3  3  3
CENTRE ASSIGNMENTS    3  3  3  3  3  3  3  3  3  3  3  3  3  3  4  4  4  4  4  4
CENTRE ASSIGNMENTS    4  4  4  4  4  4  4  4  4  4  4  4  4  4  4  4  4  4  4  4
CENTRE ASSIGNMENTS    4  4  4  4  4  4  4  4  4  4  4  4  5  5  5  5  5  5  5  5
CENTRE ASSIGNMENTS    6  6  6  6  6  6  6  6  7  7  7  7  7  7  7  7  8  8  8  8
CENTRE ASSIGNMENTS    8  8  8  8
TYPE ASSIGNMENTS      1  1  1  1  1  1  1  1  1  2  2  2  3  3  3  4  4  4  1  2
TYPE ASSIGNMENTS      3  4  1  2  3  4  5  6  7  8  9 10  5  6  7  8  9 10  1  1
TYPE ASSIGNMENTS      1  1  1  1  1  1  1  2  2  2  3  3  3  4  4  4  1  2  3  4
TYPE ASSIGNMENTS      1  2  3  4  5  6  7  8  9 10  5  6  7  8  9 10  1  1  1  1
TYPE ASSIGNMENTS      1  1  1  1  1  2  2  2  3  3  3  4  4  4  1  2  3  4  1  2
TYPE ASSIGNMENTS      3  4  5  6  7  8  9 10  5  6  7  8  9 10  1  1  1  1  1  1
TYPE ASSIGNMENTS      1  1  1  2  2  2  3  3  3  4  4  4  1  2  3  4  1  2  3  4
TYPE ASSIGNMENTS      5  6  7  8  9 10  5  6  7  8  9 10  1  1  1  1  1  2  3  4
TYPE ASSIGNMENTS      1  1  1  1  1  2  3  4  1  1  1  1  1  2  3  4  1  1  1  1
TYPE ASSIGNMENTS      1  2  3  4
EXPONENTS  4.5632400E+03 6.8202400E+02 1.5497300E+02 4.4455300E+01 1.3029000E+01
EXPONENTS  1.8277300E+00 2.0964200E+01 4.8033100E+00 1.4593300E+00 2.0964200E+01
EXPONENTS  4.8033100E+00 1.4593300E+00 2.0964200E+01 4.8033100E+00 1.4593300E+00
EXPONENTS  2.0964200E+01 4.8033100E+00 1.4593300E+00 4.8345600E-01 4.8345600E-01
EXPONENTS  4.8345600E-01 4.8345600E-01 1.4558500E-01 1.4558500E-01 1.4558500E-01
EXPONENTS  1.4558500E-01 1.2520000E+00 1.2520000E+00 1.2520000E+00 1.2520000E+00
EXPONENTS  1.2520000E+00 1.2520000E+00 3.1300000E-01 3.1300000E-01 3.1300000E-01
EXPONENTS  3.1300000E-01 3.1300000E-01 3.1300000E-01 4.5632400E+03 6.8202400E+02
EXPONENTS  1.5497300E+02 4.4455300E+01 1.3029000E+01 1.8277300E+00 2.0964200E+01
EXPONENTS  4.8033100E+00 1.4593300E+00 2.0964200E+01 4.8033100E+00 1.4593300E+00
EXPONENTS  2.0964200E+01 4.8033100E+00 1.4593300E+00 2.0964200E+01 4.8033100E+00
EXPONENTS  1.4593300E+00 4.8345600E-01 4.8345600E-01 4.8345600E-01 4.8345600E-01
EXPONENTS  1.4558500E-01 1.4558500E-01 1.4558500E-01 1.4558500E-01 1.2520000E+00
EXPONENTS  1.2520000E+00 1.2520000E+00 1.2520000E+00 1.2520000E+00 1.2520000E+00
EXPONENTS  3.1300000E-01 3.1300000E-01 3.1300000E-01 3.1300000E-01 3.1300000E-01
EXPONENTS  3.1300000E-01 4.5632400E+03 6.8202400E+02 1.5497300E+02 4.4455300E+01
EXPONENTS  1.3029000E+01 1.8277300E+00 2.0964200E+01 4.8033100E+00 1.4593300E+00
EXPONENTS  2.0964200E+01 4.8033100E+00 1.4593300E+00 2.0964200E+01 4.8033100E+00
EXPONENTS  1.4593300E+00 2.0964200E+01 4.8033100E+00 1.4593300E+00 4.8345600E-01
EXPONENTS  4.8345600E-01 4.8345600E-01 4.8345600E-01 1.4558500E-01 1.4558500E-01
EXPONENTS  1.4558500E-01 1.4558500E-01 1.2520000E+00 1.2520000E+00 1.2520000E+00
EXPONENTS  1.2520000E+00 1.2520000E+00 1.2520000E+00 3.1300000E-01 3.1300000E-01
EXPONENTS  3.1300000E-01 3.1300000E-01 3.1300000E-01 3.1300000E-01 4.5632400E+03
EXPONENTS  6.8202400E+02 1.5497300E+02 4.4455300E+01 1.3029000E+01 1.8277300E+00
EXPONENTS  2.0964200E+01 4.8033100E+00 1.4593300E+00 2.0964200E+01 4.8033100E+00
EXPONENTS  1.4593300E+00 2.0964200E+01 4.8033100E+00 1.4593300E+00 2.0964200E+01
EXPONENTS  4.8033100E+00 1.4593300E+00 4.8345600E-01 4.8345600E-01 4.8345600E-01
EXPONENTS  4.8345600E-01 1.4558500E-01 1.4558500E-01 1.4558500E-01 1.4558500E-01
EXPONENTS  1.2520000E+00 1.2520000E+00 1.2520000E+00 1.2520000E+00 1.2520000E+00
EXPONENTS  1.2520000E+00 3.1300000E-01 3.1300000E-01 3.1300000E-01 3.1300000E-01
EXPONENTS  3.1300000E-01 3.1300000E-01 3.3865000E+01 5.0947900E+00 1.1587900E+00
EXPONENTS  3.2584000E-01 1.0274100E-01 7.5000000E-01 7.5000000E-01 7.5000000E-01
EXPONENTS  3.3865000E+01 5.0947900E+00 1.1587900E+00 3.2584000E-01 1.0274100E-01
EXPONENTS  7.5000000E-01 7.5000000E-01 7.5000000E-01 3.3865000E+01 5.0947900E+00
EXPONENTS  1.1587900E+00 3.2584000E-01 1.0274100E-01 7.5000000E-01 7.5000000E-01
EXPONENTS  7.5000000E-01 3.3865000E+01 5.0947900E+00 1.1587900E+00 3.2584000E-01
EXPONENTS  1.0274100E-01 7.5000000E-01 7.5000000E-01 7.5000000E-01
MO  1                     OCC NO =   2.00000000 ORB. ENERGY = -11.23883928
  2.19121058E-01  4.07914188E-01  6.71015004E-01  9.01060532E-01  8.48382458E-01
  6.97172344E-02  1.86574720E-01  4.95763967E-01 -6.68324461E-04 -1.07232344E-03
 -1.00343053E-03 -7.77195733E-04  1.07232344E-03  1.00343053E-03  7.77195733E-04
  1.07232344E-03  1.00343053E-03  7.77195733E-04  1.61361385E-03 -1.81458973E-04
  1.81458973E-04  1.81458973E-04 -5.71301530E-05  8.11201040E-05 -8.11201040E-05
 -8.11201040E-05  0.00000000E+00  0.00000000E+00  0.00000000E+00 -9.47882371E-04
 -9.47882371E-04  9.47882371E-04  0.00000000E+00  0.00000000E+00  0.00000000E+00
  1.33991880E-04  1.33991880E-04 -1.33991880E-04  2.19121058E-01  4.07914188E-01
  6.71015004E-01  9.01060532E-01  8.48382458E-01  6.97172344E-02  1.86574720E-01
  4.95763967E-01 -6.68324461E-04  1.07232344E-03  1.00343053E-03  7.77195733E-04
 -1.07232344E-03 -1.00343053E-03 -7.77195733E-04  1.07232344E-03  1.00343053E-03
  7.77195733E-04  1.61361385E-03  1.81458973E-04 -1.81458973E-04  1.81458973E-04
 -5.71301530E-05 -8.11201040E-05  8.11201040E-05 -8.11201040E-05  0.00000000E+00
  0.00000000E+00  0.00000000E+00 -9.47882371E-04  9.47882371E-04 -9.47882371E-04
  0.00000000E+00  0.00000000E+00  0.00000000E+00  1.33991880E-04 -1.33991880E-04
  1.33991880E-04  2.19121058E-01  4.07914188E-01  6.71015004E-01  9.01060532E-01
  8.48382458E-01  6.97172344E-02  1.86574720E-01  4.95763967E-01 -6.68324461E-04
  1.07232344E-03  1.00343053E-03  7.77195733E-04  1.07232344E-03  1.00343053E-03
  7.77195733E-04 -1.07232344E-03 -1.00343053E-03 -7.77195733E-04  1.61361385E-03
  1.81458973E-04  1.81458973E-04 -1.81458973E-04 -5.71301530E-05 -8.11201040E-05
 -8.11201040E-05  8.11201040E-05  0.00000000E+00  0.00000000E+00  0.00000000E+00
  9.47882371E-04 -9.47882371E-04 -9.47882371E-04  0.00000000E+00  0.00000000E+00
  0.00000000E+00 -1.33991880E-04  1.33991880E-04  1.33991880E-04  2.19121058E-01
  4.07914188E-01  6.71015004E-01  9.01060532E-01  8.48382458E-01  6.97172344E-02
  1.86574720E-01  4.95763967E-01 -6.68324461E-04 -1.07232344E-03 -1.00343053E-03
 -7.77195733E-04 -1.07232344E-03 -1.00343053E-03 -7.77195733E-04 -1.07232344E-03
 -1.00343053E-03 -7.77195733E-04  1.61361385E-03 -1.81458973E-04 -1.81458973E-04
 -1.81458973E-04 -5.71301530E-05  8.11201040E-05  8.11201040E-05  8.11201040E-05
  0.00000000E+00  0.00000000E+00  0.00000000E+00  9.47882371E-04  9.47882371E-04
  9.47882371E-04  0.00000000E+00  0.00000000E+00  0.00000000E+00 -1.33991880E-04
 -1.33991880E-04 -1.33991880E-04  6.97901147E-05  1.25891410E-04  1.85597121E-04
  7.61071983E-06 -3.45644570E-05  2.83994229E-06 -2.83994229E-06 -2.83994229E-06
  6.97901147E-05  1.25891410E-04  1.85597121E-04  7.61071983E-06 -3.45644570E-05
 -2.83994229E-06  2.83994229E-06 -2.83994229E-06  6.97901147E-05  1.25891410E-04
  1.85597121E-04  7.61071983E-06 -3.45644570E-05 -2.83994229E-06 -2.83994229E-06
  2.83994229E-06  6.97901147E-05  1.25891410E-04  1.85597121E-04  7.61071983E-06
 -3.45644570E-05  2.83994229E-06  2.83994229E-06  2.83994229E-06
MO  2                     OCC NO =   2.00000000 ORB. ENERGY = -11.23721724
  2.19201604E-01  4.08064133E-01  6.71261662E-01  9.01391753E-01  8.48694314E-01
  6.97428617E-02  1.86775382E-01  4.96297164E-01 -6.69043247E-04 -5.04146380E-04
 -4.71756799E-04 -3.65393875E-04  8.27023386E-04  7.73890124E-04  5.99407814E-04
  8.27023386E-04  7.73890124E-04  5.99407814E-04  9.71042806E-04  2.00390097E-04
 -1.14854670E-05 -1.14854670E-05 -2.36558116E-04  8.94455309E-05 -4.94660649E-05
 -4.94660649E-05 -7.85411669E-05  3.92705835E-05  3.92705835E-05 -4.88159848E-04
 -4.88159848E-04  9.02006451E-04  7.62552755E-06 -3.81276378E-06 -3.81276378E-06
 -2.23897710E-05 -2.23897710E-05  3.89994040E-05 -2.19201604E-01 -4.08064133E-01
 -6.71261662E-01 -9.01391753E-01 -8.48694314E-01 -6.97428617E-02 -1.86775382E-01
 -4.96297164E-01  6.69043247E-04 -5.04146380E-04 -4.71756799E-04 -3.65393875E-04
  8.27023386E-04  7.73890124E-04  5.99407814E-04 -8.27023386E-04 -7.73890124E-04
 -5.99407814E-04 -9.71042806E-04  2.00390097E-04 -1.14854670E-05  1.14854670E-05
  2.36558116E-04  8.94455309E-05 -4.94660649E-05  4.94660649E-05  7.85411669E-05
 -3.92705835E-05 -3.92705835E-05  4.88159848E-04 -4.88159848E-04  9.02006451E-04
 -7.62552755E-06  3.81276378E-06  3.81276378E-06  2.23897710E-05 -2.23897710E-05
  3.89994040E-05 -2.19201604E-01 -4.08064133E-01 -6.71261662E-01 -9.01391753E-01
 -8.48694314E-01 -6.97428617E-02 -1.86775382E-01 -4.96297164E-01  6.69043247E-04
 -5.04146380E-04 -4.71756799E-04 -3.65393875E-04 -8.27023386E-04 -7.73890124E-04
 -5.99407814E-04  8.27023386E-04  7.73890124E-04  5.99407814E-04 -9.71042806E-04
  2.00390097E-04  1.14854670E-05 -1.14854670E-05  2.36558116E-04  8.94455309E-05
  4.94660649E-05 -4.94660649E-05  7.85411669E-05 -3.92705835E-05 -3.92705835E-05
 -4.88159848E-04  4.88159848E-04  9.02006451E-04 -7.62552755E-06  3.81276378E-06
  3.81276378E-06 -2.23897710E-05  2.23897710E-05  3.89994040E-05  2.19201604E-01
  4.08064133E-01  6.71261662E-01  9.01391753E-01  8.48694314E-01  6.97428617E-02
  1.86775382E-01  4.96297164E-01 -6.69043247E-04 -5.04146380E-04 -4.71756799E-04
 -3.65393875E-04 -8.27023386E-04 -7.73890124E-04 -5.99407814E-04 -8.27023386E-04
 -7.73890124E-04 -5.99407814E-04  9.71042806E-04  2.00390097E-04  1.14854670E-05
  1.14854670E-05 -2.36558116E-04  8.94455309E-05  4.94660649E-05  4.94660649E-05
 -7.85411669E-05  3.92705835E-05  3.92705835E-05  4.88159848E-04  4.88159848E-04
  9.02006451E-04  7.62552755E-06 -3.81276378E-06 -3.81276378E-06  2.23897710E-05
  2.23897710E-05  3.89994040E-05  4.28984764E-05  7.73827310E-05  1.14082543E-04
 -1.22091529E-04 -3.71433166E-06  3.41626130E-05 -8.30860045E-05 -8.30860045E-05
 -4.28984764E-05 -7.73827310E-05 -1.14082543E-04  1.22091529E-04  3.71433166E-06
  3.41626130E-05 -8.30860045E-05  8.30860045E-05 -4.28984764E-05 -7.73827310E-05
 -1.14082543E-04  1.22091529E-04  3.71433166E-06  3.41626130E-05  8.30860045E-05
 -8.30860045E-05  4.28984764E-05  7.73827310E-05  1.14082543E-04 -1.22091529E-04
 -3.71433166E-06  3.41626130E-05  8.30860045E-05  8.30860045E-05
MO  3                     OCC NO =   2.00000000 ORB. ENERGY = -11.23721724
 -2.19201604E-01 -4.08064133E-01 -6.71261662E-01 -9.01391753E-01 -8.48694314E-01
 -6.97428617E-02 -1.86775382E-01 -4.96297164E-01  6.69043247E-04  8.27023386E-04
  7.73890124E-04  5.99407814E-04 -5.04146380E-04 -4.71756799E-04 -3.65393875E-04
 -8.27023386E-04 -7.73890124E-04 -5.99407814E-04 -9.71042806E-04 -1.14854670E-05
  2.00390097E-04  1.14854670E-05  2.36558116E-04 -4.94660649E-05  8.94455309E-05
  4.94660649E-05 -3.92705835E-05  7.85411669E-05 -3.92705835E-05  4.88159848E-04
  9.02006451E-04 -4.88159848E-04  3.81276378E-06 -7.62552755E-06  3.81276378E-06
  2.23897710E-05  3.89994040E-05 -2.23897710E-05  2.19201604E-01  4.08064133E-01
  6.71261662E-01  9.01391753E-01  8.48694314E-01  6.97428617E-02  1.86775382E-01
  4.96297164E-01 -6.69043247E-04  8.27023386E-04  7.73890124E-04  5.99407814E-04
 -5.04146380E-04 -4.71756799E-04 -3.65393875E-04  8.27023386E-04  7.73890124E-04
  5.99407814E-04  9.71042806E-04 -1.14854670E-05  2.00390097E-04 -1.14854670E-05
 -2.36558116E-04 -4.94660649E-05  8.94455309E-05 -4.94660649E-05  3.92705835E-05
 -7.85411669E-05  3.92705835E-05 -4.88159848E-04  9.02006451E-04 -4.88159848E-04
 -3.81276378E-06  7.62552755E-06 -3.81276378E-06 -2.23897710E-05  3.89994040E-05
 -2.23897710E-05 -2.19201604E-01 -4.08064133E-01 -6.71261662E-01 -9.01391753E-01
 -8.48694314E-01 -6.97428617E-02 -1.86775382E-01 -4.96297164E-01  6.69043247E-04
 -8.27023386E-04 -7.73890124E-04 -5.99407814E-04 -5.04146380E-04 -4.71756799E-04
 -3.65393875E-04  8.27023386E-04  7.73890124E-04  5.99407814E-04 -9.71042806E-04
  1.14854670E-05  2.00390097E-04 -1.14854670E-05  2.36558116E-04  4.94660649E-05
  8.94455309E-05 -4.94660649E-05 -3.92705835E-05  7.85411669E-05 -3.92705835E-05
 -4.88159848E-04  9.02006451E-04  4.88159848E-04  3.81276378E-06 -7.62552755E-06
  3.81276378E-06 -2.23897710E-05  3.89994040E-05  2.23897710E-05  2.19201604E-01
  4.08064133E-01  6.71261662E-01  9.01391753E-01  8.48694314E-01  6.97428617E-02
  1.86775382E-01  4.96297164E-01 -6.69043247E-04 -8.27023386E-04 -7.73890124E-04
 -5.99407814E-04 -5.04146380E-04 -4.71756799E-04 -3.65393875E-04 -8.27023386E-04
 -7.73890124E-04 -5.99407814E-04  9.71042806E-04  1.14854670E-05  2.00390097E-04
  1.14854670E-05 -2.36558116E-04  4.94660649E-05  8.94455309E-05  4.94660649E-05
  3.92705835E-05 -7.85411669E-05  3.92705835E-05  4.88159848E-04  9.02006451E-04
  4.88159848E-04 -3.81276378E-06  7.62552755E-06 -3.81276378E-06  2.23897710E-05
  3.89994040E-05  2.23897710E-05 -4.28984764E-05 -7.73827310E-05 -1.14082543E-04
  1.22091529E-04  3.71433166E-06 -8.30860045E-05  3.41626130E-05  8.30860045E-05
  4.28984764E-05  7.73827310E-05  1.14082543E-04 -1.22091529E-04 -3.71433166E-06
 -8.30860045E-05  3.41626130E-05 -8.30860045E-05 -4.28984764E-05 -7.73827310E-05
 -1.14082543E-04  1.22091529E-04  3.71433166E-06  8.30860045E-05  3.41626130E-05
 -8.30860045E-05  4.28984764E-05  7.73827310E-05  1.14082543E-04 -1.22091529E-04
 -3.71433166E-06  8.30860045E-05  3.41626130E-05  8.30860045E-05
MO  4                     OCC NO =   2.00000000 ORB. ENERGY = -11.23721724
 -2.19201604E-01 -4.08064133E-01 -6.71261662E-01 -9.01391753E-01 -8.48694314E-01
 -6.97428617E-02 -1.86775382E-01 -4.96297164E-01  6.69043247E-04  8.27023386E-04
  7.73890124E-04  5.99407814E-04 -8.27023386E-04 -7.73890124E-04 -5.99407814E-04
 -5.04146380E-04 -4.71756799E-04 -3.65393875E-04 -9.71042806E-04 -1.14854670E-05
  1.14854670E-05  2.00390097E-04  2.36558116E-04 -4.94660649E-05  4.94660649E-05
  8.94455309E-05 -3.92705835E-05 -3.92705835E-05  7.85411669E-05  9.02006451E-04
  4.88159848E-04 -4.88159848E-04  3.81276378E-06  3.81276378E-06 -7.62552755E-06
  3.89994040E-05  2.23897710E-05 -2.23897710E-05 -2.19201604E-01 -4.08064133E-01
 -6.71261662E-01 -9.01391753E-01 -8.48694314E-01 -6.97428617E-02 -1.86775382E-01
 -4.96297164E-01  6.69043247E-04 -8.27023386E-04 -7.73890124E-04 -5.99407814E-04
  8.27023386E-04  7.73890124E-04  5.99407814E-04 -5.04146380E-04 -4.71756799E-04
 -3.65393875E-04 -9.71042806E-04  1.14854670E-05 -1.14854670E-05  2.00390097E-04
  2.36558116E-04  4.94660649E-05 -4.94660649E-05  8.94455309E-05 -3.92705835E-05
 -3.92705835E-05  7.85411669E-05  9.02006451E-04 -4.88159848E-04  4.88159848E-04
  3.81276378E-06  3.81276378E-06 -7.62552755E-06  3.89994040E-05 -2.23897710E-05
  2.23897710E-05  2.19201604E-01  4.08064133E-01  6.71261662E-01  9.01391753E-01
  8.48694314E-01  6.97428617E-02  1.86775382E-01  4.96297164E-01 -6.69043247E-04
  8.27023386E-04  7.73890124E-04  5.99407814E-04  8.27023386E-04  7.73890124E-04
  5.99407814E-04 -5.04146380E-04 -4.71756799E-04 -3.65393875E-04  9.71042806E-04
 -1.14854670E-05 -1.14854670E-05  2.00390097E-04 -2.36558116E-04 -4.94660649E-05
 -4.94660649E-05  8.94455309E-05  3.92705835E-05  3.92705835E-05 -7.85411669E-05
  9.02006451E-04 -4.88159848E-04 -4.88159848E-04 -3.81276378E-06 -3.81276378E-06
  7.62552755E-06  3.89994040E-05 -2.23897710E-05 -2.23897710E-05  2.19201604E-01
  4.08064133E-01  6.71261662E-01  9.01391753E-01  8.48694314E-01  6.97428617E-02
  1.86775382E-01  4.96297164E-01 -6.69043247E-04 -8.27023386E-04 -7.73890124E-04
 -5.99407814E-04 -8.27023386E-04 -7.73890124E-04 -5.99407814E-04 -5.04146380E-04
 -4.71756799E-04 -3.65393875E-04  9.71042806E-04  1.14854670E-05  1.14854670E-05
  2.00390097E-04 -2.36558116E-04  4.94660649E-05  4.94660649E-05  8.94455309E-05
  3.92705835E-05  3.92705835E-05 -7.85411669E-05  9.02006451E-04  4.88159848E-04
  4.88159848E-04 -3.81276378E-06 -3.81276378E-06  7.62552755E-06  3.89994040E-05
  2.23897710E-05  2.23897710E-05 -4.28984764E-05 -7.73827310E-05 -1.14082543E-04
  1.22091529E-04  3.71433166E-06 -8.30860045E-05  8.30860045E-05  3.41626130E-05
 -4.28984764E-05 -7.73827310E-05 -1.14082543E-04  1.22091529E-04  3.71433166E-06
  8.30860045E-05 -8.30860045E-05  3.41626130E-05  4.28984764E-05  7.73827310E-05
  1.14082543E-04 -1.22091529E-04 -3.71433166E-06 -8.30860045E-05 -8.30860045E-05
  3.41626130E-05  4.28984764E-05  7.73827310E-05  1.14082543E-04 -1.22091529E-04
 -3.71433166E-06  8.30860045E-05  8.30860045E-05  3.41626130E-05
MO  5                     OCC NO =   2.00000000 ORB. ENERGY =  -1.30382976
  4.51725659E-02  8.40929245E-02  1.38332070E-01  1.85756753E-01  1.74896986E-01
  1.43724496E-02  7.51991088E-02  1.99818113E-01 -2.69368775E-04  9.33186702E-02
  8.73232831E-02  6.76352580E-02 -9.33186702E-02 -8.73232831E-02 -6.76352580E-02
 -9.33186702E-02 -8.73232831E-02 -6.76352580E-02 -8.83073034E-02  2.83081894E-02
 -2.83081894E-02 -2.83081894E-02 -1.46121307E-02  1.81508380E-03 -1.81508380E-03
 -1.81508380E-03  0.00000000E+00  0.00000000E+00  0.00000000E+00  2.76045813E-02
  2.76045813E-02 -2.76045813E-02  0.00000000E+00  0.00000000E+00  0.00000000E+00
  4.11543490E-03  4.11543490E-03 -4.11543490E-03  4.51725659E-02  8.40929245E-02
  1.38332070E-01  1.85756753E-01  1.74896986E-01  1.43724496E-02  7.51991088E-02
  1.99818113E-01 -2.69368775E-04 -9.33186702E-02 -8.73232831E-02 -6.76352580E-02
  9.33186702E-02  8.73232831E-02  6.76352580E-02 -9.33186702E-02 -8.73232831E-02
 -6.76352580E-02 -8.83073034E-02 -2.83081894E-02  2.83081894E-02 -2.83081894E-02
 -1.46121307E-02 -1.81508380E-03  1.81508380E-03 -1.81508380E-03  0.00000000E+00
  0.00000000E+00  0.00000000E+00  2.76045813E-02 -2.76045813E-02  2.76045813E-02
  0.00000000E+00  0.00000000E+00  0.00000000E+00  4.11543490E-03 -4.11543490E-03
  4.11543490E-03  4.51725659E-02  8.40929245E-02  1.38332070E-01  1.85756753E-01
  1.74896986E-01  1.43724496E-02  7.51991088E-02  1.99818113E-01 -2.69368775E-04
 -9.33186702E-02 -8.73232831E-02 -6.76352580E-02 -9.33186702E-02 -8.73232831E-02
 -6.76352580E-02  9.33186702E-02  8.73232831E-02  6.76352580E-02 -8.83073034E-02
 -2.83081894E-02 -2.83081894E-02  2.83081894E-02 -1.46121307E-02 -1.81508380E-03
 -1.81508380E-03  1.81508380E-03  0.00000000E+00  0.00000000E+00  0.00000000E+00
 -2.76045813E-02  2.76045813E-02  2.76045813E-02  0.00000000E+00  0.00000000E+00
  0.00000000E+00 -4.11543490E-03  4.11543490E-03  4.11543490E-03  4.51725659E-02
  8.40929245E-02  1.38332070E-01  1.85756753E-01  1.74896986E-01  1.43724496E-02
  7.51991088E-02  1.99818113E-01 -2.69368775E-04  9.33186702E-02  8.73232831E-02
  6.76352580E-02  9.33186702E-02  8.73232831E-02  6.76352580E-02  9.33186702E-02
  8.73232831E-02  6.76352580E-02 -8.83073034E-02  2.83081894E-02  2.83081894E-02
  2.83081894E-02 -1.46121307E-02  1.81508380E-03  1.81508380E-03  1.81508380E-03
  0.00000000E+00  0.00000000E+00  0.00000000E+00 -2.76045813E-02 -2.76045813E-02
 -2.76045813E-02  0.00000000E+00  0.00000000E+00  0.00000000E+00 -4.11543490E-03
 -4.11543490E-03 -4.11543490E-03 -3.00858275E-03 -5.42705405E-03 -8.00090816E-03
 -2.12297104E-03  2.84439718E-04  1.17319877E-03 -1.17319877E-03 -1.17319877E-03
 -3.00858275E-03 -5.42705405E-03 -8.00090816E-03 -2.12297104E-03  2.84439718E-04
 -1.17319877E-03  1.17319877E-03 -1.17319877E-03 -3.00858275E-03 -5.42705405E-03
 -8.00090816E-03 -2.12297104E-03  2.84439718E-04 -1.17319877E-03 -1.17319877E-03
  1.17319877E-03 -3.00858275E-03 -5.42705405E-03 -8.00090816E-03 -2.12297104E-03
  2.84439718E-04  1.17319877E-03  1.17319877E-03  1.17319877E-03
MO  6                     OCC NO =   2.00000000 ORB. ENERGY =  -0.80999974
 -3.69441229E-02 -6.87749141E-02 -1.13134087E-01 -1.51920091E-01 -1.43038493E-01
 -1.17544252E-02 -6.37285890E-02 -1.69338794E-01  2.28280524E-04 -1.21914076E-02
 -1.14081538E-02 -8.83605604E-03 -1.63101278E-01 -1.52622611E-01 -1.18212111E-01
  1.21914076E-02  1.14081538E-02  8.83605604E-03  8.21296127E-02 -1.09537839E-02
 -4.94400040E-02  1.09537839E-02  3.88152232E-02 -4.01939383E-03  4.13072392E-04
  4.01939383E-03  8.55773450E-03 -1.71154690E-02  8.55773450E-03 -2.83047516E-04
 -3.68163138E-02  2.83047516E-04  8.11814741E-04 -1.62362948E-03  8.11814741E-04
 -2.77312691E-04 -6.17446663E-03  2.77312691E-04  3.69441229E-02  6.87749141E-02
  1.13134087E-01  1.51920091E-01  1.43038493E-01  1.17544252E-02  6.37285890E-02
  1.69338794E-01 -2.28280524E-04 -1.21914076E-02 -1.14081538E-02 -8.83605604E-03
 -1.63101278E-01 -1.52622611E-01 -1.18212111E-01 -1.21914076E-02 -1.14081538E-02
 -8.83605604E-03 -8.21296127E-02 -1.09537839E-02 -4.94400040E-02 -1.09537839E-02
 -3.88152232E-02 -4.01939383E-03  4.13072392E-04 -4.01939383E-03 -8.55773450E-03
  1.71154690E-02 -8.55773450E-03  2.83047516E-04 -3.68163138E-02  2.83047516E-04
 -8.11814741E-04  1.62362948E-03 -8.11814741E-04  2.77312691E-04 -6.17446663E-03
  2.77312691E-04 -3.69441229E-02 -6.87749141E-02 -1.13134087E-01 -1.51920091E-01
 -1.43038493E-01 -1.17544252E-02 -6.37285890E-02 -1.69338794E-01  2.28280524E-04
  1.21914076E-02  1.14081538E-02  8.83605604E-03 -1.63101278E-01 -1.52622611E-01
 -1.18212111E-01 -1.21914076E-02 -1.14081538E-02 -8.83605604E-03  8.21296127E-02
  1.09537839E-02 -4.94400040E-02 -1.09537839E-02  3.88152232E-02  4.01939383E-03
  4.13072392E-04 -4.01939383E-03  8.55773450E-03 -1.71154690E-02  8.55773450E-03
  2.83047516E-04 -3.68163138E-02 -2.83047516E-04  8.11814741E-04 -1.62362948E-03
  8.11814741E-04  2.77312691E-04 -6.17446663E-03 -2.77312691E-04  3.69441229E-02
  6.87749141E-02  1.13134087E-01  1.51920091E-01  1.43038493E-01  1.17544252E-02
  6.37285890E-02  1.69338794E-01 -2.28280524E-04  1.21914076E-02  1.14081538E-02
  8.83605604E-03 -1.63101278E-01 -1.52622611E-01 -1.18212111E-01  1.21914076E-02
  1.14081538E-02  8.83605604E-03 -8.21296127E-02  1.09537839E-02 -4.94400040E-02
  1.09537839E-02 -3.88152232E-02  4.01939383E-03  4.13072392E-04  4.01939383E-03
 -8.55773450E-03  1.71154690E-02 -8.55773450E-03 -2.83047516E-04 -3.68163138E-02
 -2.83047516E-04 -8.11814741E-04  1.62362948E-03 -8.11814741E-04 -2.77312691E-04
 -6.17446663E-03 -2.77312691E-04  1.72379806E-02  3.10948577E-02  4.58420164E-02
  3.12663738E-02  2.86785261E-03 -1.06700067E-02  5.39396740E-03  1.06700067E-02
 -1.72379806E-02 -3.10948577E-02 -4.58420164E-02 -3.12663738E-02 -2.86785261E-03
 -1.06700067E-02  5.39396740E-03 -1.06700067E-02  1.72379806E-02  3.10948577E-02
  4.58420164E-02  3.12663738E-02  2.86785261E-03  1.06700067E-02  5.39396740E-03
 -1.06700067E-02 -1.72379806E-02 -3.10948577E-02 -4.58420164E-02 -3.12663738E-02
 -2.86785261E-03  1.06700067E-02  5.39396740E-03  1.06700067E-02
MO  7                     OCC NO =   2.00000000 ORB. ENERGY =  -0.80999974
  3.69441229E-02  6.87749141E-02  1.13134087E-01  1.51920091E-01  1.43038493E-01
  1.17544252E-02  6.37285890E-02  1.69338794E-01 -2.28280524E-04 -1.63101278E-01
 -1.52622611E-01 -1.18212111E-01 -1.21914076E-02 -1.14081538E-02 -8.83605604E-03
 -1.21914076E-02 -1.14081538E-02 -8.83605604E-03 -8.21296127E-02 -4.94400040E-02
 -1.09537839E-02 -1.09537839E-02 -3.88152232E-02  4.13072392E-04 -4.01939383E-03
 -4.01939383E-03  1.71154690E-02 -8.55773450E-03 -8.55773450E-03  2.83047516E-04
  2.83047516E-04 -3.68163138E-02  1.62362948E-03 -8.11814741E-04 -8.11814741E-04
  2.77312691E-04  2.77312691E-04 -6.17446663E-03 -3.69441229E-02 -6.87749141E-02
 -1.13134087E-01 -1.51920091E-01 -1.43038493E-01 -1.17544252E-02 -6.37285890E-02
 -1.69338794E-01  2.28280524E-04 -1.63101278E-01 -1.52622611E-01 -1.18212111E-01
 -1.21914076E-02 -1.14081538E-02 -8.83605604E-03  1.21914076E-02  1.14081538E-02
  8.83605604E-03  8.21296127E-02 -4.94400040E-02 -1.09537839E-02  1.09537839E-02
  3.88152232E-02  4.13072392E-04 -4.01939383E-03  4.01939383E-03 -1.71154690E-02
  8.55773450E-03  8.55773450E-03 -2.83047516E-04  2.83047516E-04 -3.68163138E-02
 -1.62362948E-03  8.11814741E-04  8.11814741E-04 -2.77312691E-04  2.77312691E-04
 -6.17446663E-03 -3.69441229E-02 -6.87749141E-02 -1.13134087E-01 -1.51920091E-01
 -1.43038493E-01 -1.17544252E-02 -6.37285890E-02 -1.69338794E-01  2.28280524E-04
 -1.63101278E-01 -1.52622611E-01 -1.18212111E-01  1.21914076E-02  1.14081538E-02
  8.83605604E-03 -1.21914076E-02 -1.14081538E-02 -8.83605604E-03  8.21296127E-02
 -4.94400040E-02  1.09537839E-02 -1.09537839E-02  3.88152232E-02  4.13072392E-04
  4.01939383E-03 -4.01939383E-03 -1.71154690E-02  8.55773450E-03  8.55773450E-03
  2.83047516E-04 -2.83047516E-04 -3.68163138E-02 -1.62362948E-03  8.11814741E-04
  8.11814741E-04  2.77312691E-04 -2.77312691E-04 -6.17446663E-03  3.69441229E-02
  6.87749141E-02  1.13134087E-01  1.51920091E-01  1.43038493E-01  1.17544252E-02
  6.37285890E-02  1.69338794E-01 -2.28280524E-04 -1.63101278E-01 -1.52622611E-01
 -1.18212111E-01  1.21914076E-02  1.14081538E-02  8.83605604E-03  1.21914076E-02
  1.14081538E-02  8.83605604E-03 -8.21296127E-02 -4.94400040E-02  1.09537839E-02
  1.09537839E-02 -3.88152232E-02  4.13072392E-04  4.01939383E-03  4.01939383E-03
  1.71154690E-02 -8.55773450E-03 -8.55773450E-03 -2.83047516E-04 -2.83047516E-04
 -3.68163138E-02  1.62362948E-03 -8.11814741E-04 -8.11814741E-04 -2.77312691E-04
 -2.77312691E-04 -6.17446663E-03 -1.72379806E-02 -3.10948577E-02 -4.58420164E-02
 -3.12663738E-02 -2.86785261E-03  5.39396740E-03 -1.06700067E-02 -1.06700067E-02
  1.72379806E-02  3.10948577E-02  4.58420164E-02  3.12663738E-02  2.86785261E-03
  5.39396740E-03 -1.06700067E-02  1.06700067E-02  1.72379806E-02  3.10948577E-02
  4.58420164E-02  3.12663738E-02  2.86785261E-03  5.39396740E-03  1.06700067E-02
 -1.06700067E-02 -1.72379806E-02 -3.10948577E-02 -4.58420164E-02 -3.12663738E-02
 -2.86785261E-03  5.39396740E-03  1.06700067E-02  1.06700067E-02
MO  8                     OCC NO =   2.00000000 ORB. ENERGY =  -0.80999974
 -3.69441229E-02 -6.87749141E-02 -1.13134087E-01 -1.51920091E-01 -1.43038493E-01
 -1.17544252E-02 -6.37285890E-02 -1.69338794E-01  2.28280524E-04 -1.21914076E-02
 -1.14081538E-02 -8.83605604E-03  1.21914076E-02  1.14081538E-02  8.83605604E-03
 -1.63101278E-01 -1.52622611E-01 -1.18212111E-01  8.21296127E-02 -1.09537839E-02
  1.09537839E-02 -4.94400040E-02  3.88152232E-02 -4.01939383E-03  4.01939383E-03
  4.13072392E-04  8.55773450E-03  8.55773450E-03 -1.71154690E-02 -3.68163138E-02
 -2.83047516E-04  2.83047516E-04  8.11814741E-04  8.11814741E-04 -1.62362948E-03
 -6.17446663E-03 -2.77312691E-04  2.77312691E-04 -3.69441229E-02 -6.87749141E-02
 -1.13134087E-01 -1.51920091E-01 -1.43038493E-01 -1.17544252E-02 -6.37285890E-02
 -1.69338794E-01  2.28280524E-04  1.21914076E-02  1.14081538E-02  8.83605604E-03
 -1.21914076E-02 -1.14081538E-02 -8.83605604E-03 -1.63101278E-01 -1.52622611E-01
 -1.18212111E-01  8.21296127E-02  1.09537839E-02 -1.09537839E-02 -4.94400040E-02
  3.88152232E-02  4.01939383E-03 -4.01939383E-03  4.13072392E-04  8.55773450E-03
  8.55773450E-03 -1.71154690E-02 -3.68163138E-02  2.83047516E-04 -2.83047516E-04
  8.11814741E-04  8.11814741E-04 -1.62362948E-03 -6.17446663E-03  2.77312691E-04
 -2.77312691E-04  3.69441229E-02  6.87749141E-02  1.13134087E-01  1.51920091E-01
  1.43038493E-01  1.17544252E-02  6.37285890E-02  1.69338794E-01 -2.28280524E-04
 -1.21914076E-02 -1.14081538E-02 -8.83605604E-03 -1.21914076E-02 -1.14081538E-02
 -8.83605604E-03 -1.63101278E-01 -1.52622611E-01 -1.18212111E-01 -8.21296127E-02
 -1.09537839E-02 -1.09537839E-02 -4.94400040E-02 -3.88152232E-02 -4.01939383E-03
 -4.01939383E-03  4.13072392E-04 -8.55773450E-03 -8.55773450E-03  1.71154690E-02
 -3.68163138E-02  2.83047516E-04  2.83047516E-04 -8.11814741E-04 -8.11814741E-04
  1.62362948E-03 -6.17446663E-03  2.77312691E-04  2.77312691E-04  3.69441229E-02
  6.87749141E-02  1.13134087E-01  1.51920091E-01  1.43038493E-01  1.17544252E-02
  6.37285890E-02  1.69338794E-01 -2.28280524E-04  1.21914076E-02  1.14081538E-02
  8.83605604E-03  1.21914076E-02  1.14081538E-02  8.83605604E-03 -1.63101278E-01
 -1.52622611E-01 -1.18212111E-01 -8.21296127E-02  1.09537839E-02  1.09537839E-02
 -4.94400040E-02 -3.88152232E-02  4.01939383E-03  4.01939383E-03  4.13072392E-04
 -8.55773450E-03 -8.55773450E-03  1.71154690E-02 -3.68163138E-02 -2.83047516E-04
 -2.83047516E-04 -8.11814741E-04 -8.11814741E-04  1.62362948E-03 -6.17446663E-03
 -2.77312691E-04 -2.77312691E-04  1.72379806E-02  3.10948577E-02  4.58420164E-02
  3.12663738E-02  2.86785261E-03 -1.06700067E-02  1.06700067E-02  5.39396740E-03
  1.72379806E-02  3.10948577E-02  4.58420164E-02  3.12663738E-02  2.86785261E-03
  1.06700067E-02 -1.06700067E-02  5.39396740E-03 -1.72379806E-02 -3.10948577E-02
 -4.58420164E-02 -3.12663738E-02 -2.86785261E-03 -1.06700067E-02 -1.06700067E-02
  5.39396740E-03 -1.72379806E-02 -3.10948577E-02 -4.58420164E-02 -3.12663738E-02
 -2.86785261E-03  1.06700067E-02  1.06700067E-02  5.39396740E-03
MO  9                     OCC NO =   2.00000000 ORB. ENERGY =  -0.71537955
  1.28905077E-02  2.39968766E-02  3.94746364E-02  5.30078115E-02  4.99088527E-02
  4.10134268E-03  2.27548277E-02  6.04638381E-02 -8.15094776E-05 -1.55098418E-01
 -1.45133906E-01 -1.12411820E-01  1.55098418E-01  1.45133906E-01  1.12411820E-01